VARIABLES="X","Y","U","V","P"
ZONE  F=POINT
I=10, J=10
0.00000000	0.00000000	1.00000000	 -nan	 -nan
0.01000000	0.00000000	  nan	  nan	 -nan
0.02000000	0.00000000	  nan	  nan	 -nan
0.03000000	0.00000000	  nan	  nan	 -nan
0.04000000	0.00000000	  nan	  nan	 -nan
0.05000000	0.00000000	  nan	  nan	 -nan
0.06000000	0.00000000	  nan	  nan	 -nan
0.07000000	0.00000000	  nan	  nan	 -nan
0.08000000	0.00000000	  nan	  nan	 -nan
0.09000000	0.00000000	1.00000000	  nan	 -nan
0.00000000	0.01000000	0.00000000	 -nan	 -nan
0.01000000	0.01000000	  nan	  nan	 -nan
0.02000000	0.01000000	  nan	  nan	 -nan
0.03000000	0.01000000	  nan	  nan	 -nan
0.04000000	0.01000000	  nan	  nan	 -nan
0.05000000	0.01000000	  nan	  nan	 -nan
0.06000000	0.01000000	  nan	  nan	 -nan
0.07000000	0.01000000	  nan	  nan	 -nan
0.08000000	0.01000000	  nan	  nan	 -nan
0.09000000	0.01000000	0.00000000	  nan	 -nan
0.00000000	0.02000000	0.00000000	 -nan	 -nan
0.01000000	0.02000000	  nan	  nan	 -nan
0.02000000	0.02000000	  nan	  nan	 -nan
0.03000000	0.02000000	  nan	  nan	 -nan
0.04000000	0.02000000	  nan	  nan	 -nan
0.05000000	0.02000000	  nan	  nan	 -nan
0.06000000	0.02000000	  nan	  nan	 -nan
0.07000000	0.02000000	  nan	  nan	 -nan
0.08000000	0.02000000	  nan	  nan	 -nan
0.09000000	0.02000000	0.00000000	  nan	 -nan
0.00000000	0.03000000	0.00000000	 -nan	 -nan
0.01000000	0.03000000	  nan	  nan	 -nan
0.02000000	0.03000000	  nan	  nan	 -nan
0.03000000	0.03000000	  nan	  nan	 -nan
0.04000000	0.03000000	  nan	  nan	 -nan
0.05000000	0.03000000	  nan	  nan	 -nan
0.06000000	0.03000000	  nan	  nan	 -nan
0.07000000	0.03000000	  nan	  nan	 -nan
0.08000000	0.03000000	  nan	  nan	 -nan
0.09000000	0.03000000	0.00000000	  nan	 -nan
0.00000000	0.04000000	0.00000000	 -nan	 -nan
0.01000000	0.04000000	  nan	  nan	 -nan
0.02000000	0.04000000	  nan	  nan	 -nan
0.03000000	0.04000000	  nan	  nan	 -nan
0.04000000	0.04000000	  nan	  nan	 -nan
0.05000000	0.04000000	  nan	  nan	 -nan
0.06000000	0.04000000	  nan	  nan	 -nan
0.07000000	0.04000000	  nan	  nan	 -nan
0.08000000	0.04000000	  nan	  nan	 -nan
0.09000000	0.04000000	0.00000000	  nan	 -nan
0.00000000	0.05000000	0.00000000	 -nan	 -nan
0.01000000	0.05000000	  nan	  nan	 -nan
0.02000000	0.05000000	  nan	  nan	 -nan
0.03000000	0.05000000	  nan	  nan	 -nan
0.04000000	0.05000000	  nan	  nan	 -nan
0.05000000	0.05000000	  nan	  nan	 -nan
0.06000000	0.05000000	  nan	  nan	 -nan
0.07000000	0.05000000	  nan	  nan	 -nan
0.08000000	0.05000000	  nan	  nan	 -nan
0.09000000	0.05000000	0.00000000	  nan	 -nan
0.00000000	0.06000000	0.00000000	 -nan	 -nan
0.01000000	0.06000000	  nan	  nan	 -nan
0.02000000	0.06000000	  nan	  nan	 -nan
0.03000000	0.06000000	  nan	  nan	 -nan
0.04000000	0.06000000	  nan	  nan	 -nan
0.05000000	0.06000000	  nan	  nan	 -nan
0.06000000	0.06000000	  nan	  nan	 -nan
0.07000000	0.06000000	  nan	  nan	 -nan
0.08000000	0.06000000	  nan	  nan	 -nan
0.09000000	0.06000000	0.00000000	  nan	 -nan
0.00000000	0.07000000	0.00000000	 -nan	 -nan
0.01000000	0.07000000	  nan	  nan	 -nan
0.02000000	0.07000000	  nan	  nan	 -nan
0.03000000	0.07000000	  nan	  nan	 -nan
0.04000000	0.07000000	  nan	  nan	 -nan
0.05000000	0.07000000	  nan	  nan	 -nan
0.06000000	0.07000000	  nan	  nan	 -nan
0.07000000	0.07000000	  nan	  nan	 -nan
0.08000000	0.07000000	  nan	  nan	 -nan
0.09000000	0.07000000	0.00000000	  nan	 -nan
0.00000000	0.08000000	0.00000000	 -nan	 -nan
0.01000000	0.08000000	  nan	  nan	 -nan
0.02000000	0.08000000	  nan	  nan	 -nan
0.03000000	0.08000000	  nan	  nan	 -nan
0.04000000	0.08000000	  nan	  nan	 -nan
0.05000000	0.08000000	  nan	  nan	 -nan
0.06000000	0.08000000	  nan	  nan	 -nan
0.07000000	0.08000000	  nan	  nan	 -nan
0.08000000	0.08000000	  nan	  nan	 -nan
0.09000000	0.08000000	0.00000000	  nan	 -nan
0.00000000	0.09000000	0.00000000	0.00000000	 -nan
0.01000000	0.09000000	  nan	0.00000000	 -nan
0.02000000	0.09000000	  nan	0.00000000	 -nan
0.03000000	0.09000000	  nan	0.00000000	 -nan
0.04000000	0.09000000	  nan	0.00000000	 -nan
0.05000000	0.09000000	  nan	0.00000000	 -nan
0.06000000	0.09000000	  nan	0.00000000	 -nan
0.07000000	0.09000000	  nan	0.00000000	 -nan
0.08000000	0.09000000	  nan	0.00000000	 -nan
0.09000000	0.09000000	0.00000000	0.00000000	 -nan
